ITEM: TIMESTEP
0
ITEM: NUMBER OF ATOMS
56
ITEM: BOX BOUNDS
-2.5 2.5
-2.5 2.5
-2.5 2.5
ITEM: ATOMS id type x y z c_q[1] c_q[2] c_q[3] c_q[4] c_shape[1] c_shape[2] c_shape[3] vx vy vz angmomx angmomy angmomz mol
1  1  3.50548 0.294832 0.195769  1 0 0 0    0.3 0.3 0.3 0 0 0 0 0 0 1
2 5 2.97373 0.796749 0.520292 0.206253 0.353712 0.41231 0.813848  0.4 0.3 0.1 0 0 0 0 0 0 1
3  1  3.69573 0.955835 -0.0465383  1 0 0 0    0.3 0.3 0.3 0 0 0 0 0 0 1
4 4 3.24433 1.09271 0.599603 -0.054603 0.463564 0.283232 0.837799  0.4 0.3 0.1 0 0 0 0 0 0 1
5  1  3.67161 1.68184 0.0180043  1 0 0 0    0.3 0.3 0.3 0 0 0 0 0 0 1
6 5 3.47206 1.40168 0.740284 -0.310144 0.528288 0.126582 0.780192  0.4 0.3 0.1 0 0 0 0 0 0 1
7  1  3.55273 2.2748 0.425555  1 0 0 0    0.3 0.3 0.3 0 0 0 0 0 0 1
8 3 3.68083 1.68404 0.949567 -0.535493 0.541585 -0.0423909 0.646634  0.4 0.3 0.1 0 0 0 0 0 0 1
9  1  3.49468 2.58721 1.08196  1 0 0 0    0.3 0.3 0.3 0 0 0 0 0 0 1
10 4 3.90178 1.91028 1.20862 -0.708712 0.50216 -0.207237 0.450128  0.4 0.3 0.1 0 0 0 0 0 0 1
11  1  3.62996 2.57815 1.79851  1 0 0 0    0.3 0.3 0.3 0 0 0 0 0 0 1
12 2 4.16138 2.07224 1.4797 -0.81294 0.41385 -0.351909 0.209802  0.4 0.3 0.1 0 0 0 0 0 0 1
13  1  4.01761 2.32883 2.36366  1 0 0 0    0.3 0.3 0.3 0 0 0 0 0 0 1
14 3 4.47147 2.18614 1.72051 -0.838029 0.285252 -0.462323 -0.0509469  0.4 0.3 0.1 0 0 0 0 0 0 1
15  1  4.6208 2.01175 2.62338  1 0 0 0    0.3 0.3 0.3 0 0 0 0 0 0 1
16 2 4.82466 2.28649 1.90022 -0.781538 0.128886 -0.527731 -0.306737  0.4 0.3 0.1 0 0 0 0 0 0 1
17  1  5.3208 1.82514 2.53968  1 0 0 0    0.3 0.3 0.3 0 0 0 0 0 0 1
18 4 5.19721 2.41293 2.01125 -0.648965 -0.0400274 -0.541765 -0.532666  0.4 0.3 0.1 0 0 0 0 0 0 1
19  1  5.96211 1.91767 2.20503  1 0 0 0    0.3 0.3 0.3 0 0 0 0 0 0 1
20 2 5.55803 2.5952 2.0721 0.453216 0.205044 0.503059 0.706742  0.4 0.3 0.1 0 0 0 0 0 0 1
21  1  6.41152 2.33196 1.80725  1 0 0 0    0.3 0.3 0.3 0 0 0 0 0 0 1
22 5 5.88046 2.84182 2.12031 0.213348 0.3501 0.415381 0.812017  0.4 0.3 0.1 0 0 0 0 0 0 1
23  1  6.60874 2.98837 1.55814  1 0 0 0    0.3 0.3 0.3 0 0 0 0 0 0 1
24 3 6.15246 3.13687 2.19826 -0.0472899 0.461074 0.287267 0.838243  0.4 0.3 0.1 0 0 0 0 0 0 1
25  1  6.58927 3.71531 1.61303  1 0 0 0    0.3 0.3 0.3 0 0 0 0 0 0 1
26 5 6.38112 3.44603 2.33701 -0.303324 0.527164 0.131187 0.782868  0.4 0.3 0.1 0 0 0 0 0 0 1
27  1  6.47095 4.31437 2.01173  1 0 0 0    0.3 0.3 0.3 0 0 0 0 0 0 1
28 4 6.59001 3.7296 2.54453 -0.52983 0.541935 -0.0376632 0.651283  0.4 0.3 0.1 0 0 0 0 0 0 1
29  1  6.7686 2.85245 3.34372  1 0 0 0    0.3 0.3 0.3 0 0 0 0 0 0 2
30 5 6.64954 3.43722 2.81093 -0.0376632 0.651283 0.52983 -0.541935  0.4 0.3 0.1 0 0 0 0 0 0 2
31  1  6.06889 3.04209 3.423  1 0 0 0    0.3 0.3 0.3 0 0 0 0 0 0 2
32 4 6.27704 3.31138 2.69901 0.131187 0.782868 0.303324 -0.527164  0.4 0.3 0.1 0 0 0 0 0 0 2
33  1  5.46804 3.35962 3.15845  1 0 0 0    0.3 0.3 0.3 0 0 0 0 0 0 2
34 2 5.92432 3.21112 2.51833 0.287267 0.838243 0.0472899 -0.461074  0.4 0.3 0.1 0 0 0 0 0 0 2
35  1  5.08387 3.60662 2.58991  1 0 0 0    0.3 0.3 0.3 0 0 0 0 0 0 2
36 4 5.61493 3.09676 2.27685 0.415381 0.812017 -0.213348 -0.3501  0.4 0.3 0.1 0 0 0 0 0 0 2
37  1  4.9519 3.6115 1.8727  1 0 0 0    0.3 0.3 0.3 0 0 0 0 0 0 2
38 3 5.35599 2.93397 2.00563 -0.503059 -0.706742 0.453216 0.205044  0.4 0.3 0.1 0 0 0 0 0 0 2
39  1  5.01183 3.29461 1.21862  1 0 0 0    0.3 0.3 0.3 0 0 0 0 0 0 2
40 5 5.13542 2.70682 1.74704 -0.541765 -0.532666 0.648965 0.0400274  0.4 0.3 0.1 0 0 0 0 0 0 2
41  1  5.13045 2.69859 0.815481  1 0 0 0    0.3 0.3 0.3 0 0 0 0 0 0 2
42 3 4.92659 2.42386 1.53864 -0.527731 -0.306737 0.781538 -0.128886  0.4 0.3 0.1 0 0 0 0 0 0 2
43  1  5.15226 1.9721 0.755771  1 0 0 0    0.3 0.3 0.3 0 0 0 0 0 0 2
44 2 4.6984 2.11479 1.39893 -0.462323 -0.0509469 0.838029 -0.285252  0.4 0.3 0.1 0 0 0 0 0 0 2
45  1  4.95853 1.31337 1.00149  1 0 0 0    0.3 0.3 0.3 0 0 0 0 0 0 2
46 3 4.4271 1.81928 1.3203 -0.351909 0.209802 0.81294 -0.41385  0.4 0.3 0.1 0 0 0 0 0 0 2
47  1  4.51243 0.894898 1.39861  1 0 0 0    0.3 0.3 0.3 0 0 0 0 0 0 2
48 5 4.10533 1.57182 1.27195 -0.207237 0.450128 0.708712 -0.50216  0.4 0.3 0.1 0 0 0 0 0 0 2
49  1  3.87299 0.797894 1.73558  1 0 0 0    0.3 0.3 0.3 0 0 0 0 0 0 2
50 2 3.74489 1.38866 1.21157 -0.0423909 0.646634 0.535493 -0.541585  0.4 0.3 0.1 0 0 0 0 0 0 2
51  1  3.17272 0.981441 1.8237  1 0 0 0    0.3 0.3 0.3 0 0 0 0 0 0 2
52 4 3.37228 1.2616 1.10142 0.126582 0.780192 0.310144 -0.528288  0.4 0.3 0.1 0 0 0 0 0 0 2
53  1  2.56722 1.29803 1.56882  1 0 0 0    0.3 0.3 0.3 0 0 0 0 0 0 2
54 5 3.01863 1.16115 0.922674 0.283232 0.837799 0.054603 -0.463564  0.4 0.3 0.1 0 0 0 0 0 0 2
55  1  2.17609 1.54962 1.00708  1 0 0 0    0.3 0.3 0.3 0 0 0 0 0 0 2
56 4 2.70785 1.04771 0.682553 0.41231 0.813848 -0.206253 -0.353712  0.4 0.3 0.1 0 0 0 0 0 0 2
